% Model:              impedance_tube_4_mic_v1.mph
% Version:            COMSOL 5.4.0.388
% Date:               Dec 21 2021, 16:10
% Dimension:          1
% Nodes:              496
% Expressions:        1
% Description:        Line graph
% cln1x                   Height
-1.13                     2.0E-5
-1.1262777777777782       2.0734302054596265E-5
-1.1225555555555553       2.144414566145267E-5
-1.1188333333333333       2.212953082056898E-5
-1.1151111111111112       2.2789196316455447E-5
-1.111388888888889        2.3422046244506353E-5
-1.1076666666666666       2.4028080604721612E-5
-1.1039444444444444       2.4606214111313916E-5
-1.100222222222222        2.5155471604930674E-5
-1.0965000000000003       2.567585308557187E-5
-1.0927777777777778       2.6166417913517313E-5
-1.0890555555555557       2.6626348227299967E-5
-1.0853333333333333       2.7055644026919797E-5
-1.081611111111111        2.7453520367835E-5
-1.077888888888889        2.7819323149553373E-5
-1.0741666666666663       2.8153052372074847E-5
-1.070444444444445        2.8454087665815246E-5
-1.0667222222222221       2.872194505066205E-5
-1.063                    2.8956624526615215E-5
-1.0592131782945737       2.9160868959833226E-5
-1.0554263565891473       2.9329984322282208E-5
-1.0516395348837209       2.9463970613962175E-5
-1.0478527131782944       2.95625419626038E-5
-1.0440658914728682       2.9625565477113328E-5
-1.0402790697674418       2.9653041157490758E-5
-1.0364922480620153       2.9644874648460608E-5
-1.0327054263565891       2.9601125540975774E-5
-1.028918604651163        2.952179383503626E-5
-1.0251317829457365       2.940697769691585E-5
-1.0213449612403105       2.9256928561125298E-5
-1.0175581395348836       2.907164642766464E-5
-1.0137713178294574       2.8851420927641428E-5
-1.009984496124031        2.8596692623828397E-5
-1.0061976744186047       2.830746151622558E-5
-1.0024108527131783       2.7984205572551913E-5
-0.998624031007752        2.7627549724818887E-5
-0.9948372093023256       2.7237493973026576E-5
-0.9910503875968992       2.6814699458457433E-5
-0.987263565891473        2.635996873172608E-5
-0.9834767441860467       2.5873301792832537E-5
-0.9796899224806205       2.535553581485379E-5
-0.975903100775194        2.4807642297701772E-5
-0.9721162790697676       2.4229621241376475E-5
-0.9683294573643414       2.362247680744599E-5
-0.964542635658915        2.2987338950790892E-5
-0.9607558139534886       2.2324207671411207E-5
-0.9569689922480622       2.1634243272220283E-5
-0.9531821705426358       2.091872195707781E-5
-0.9493953488372093       2.0177643725983813E-5
-0.9456085271317831       1.9412312489382284E-5
-0.9418217054263569       1.8624136914312973E-5
-0.9380348837209306       1.781311700077589E-5
-0.9342480620155044       1.6980686181654696E-5
-0.9304612403100779       1.61283703704776E-5
-0.9266744186046515       1.5256169567244665E-5
-0.9228875968992253       1.4365631243062118E-5
-0.9191007751937987       1.3458382074735869E-5
-0.9153139534883724       1.253442206226597E-5
-0.911527131782946        1.1595395998901402E-5
-0.9077403100775197       1.064301375305075E-5
-0.9039534883720932       9.677275324713992E-6
-0.9001666666666672       8.69990506191057E-6
-0.8963798449612408       7.712677554324983E-6
-0.8925930232558144       6.715592801957334E-6
-0.888806201550388        5.710436080859035E-6
-0.8850193798449616       4.699027532532383E-6
-0.881232558139535        3.6813671569774026E-6
-0.8774457364341088       2.659281873383288E-6
-0.8736589147286825       1.6346177135520797E-6
-0.8698720930232562       6.073746774837813E-7
-0.86608527131783         -4.20598407226377E-7
-0.8622984496124035       -1.447449559666369E-6
-0.8585116279069771       -2.4731787798361343E-6
-0.8547248062015507       -3.495935303125004E-6
-0.8509379844961243       -4.513881204964081E-6
-0.847151162790698        -5.527016485353305E-6
-0.8433643410852718       -6.533508434981009E-6
-0.8395775193798455       -7.5315530392354765E-6
-0.835790697674419        -8.521150298116584E-6
-0.8320038759689927       -9.500505354889417E-6
-0.8282170542635664       -1.0467867592211293E-5
-0.82443023255814         -1.1423237010082178E-5
-0.8206434108527138       -1.2364875992730682E-5
-0.8168565891472873       -1.3291106230587807E-5
-0.8130697674418608       -1.4201927723653495E-5
-0.8092829457364348       -1.509567886717899E-5
-0.8054961240310082       -1.5970771788790976E-5
-0.8017093023255819       -1.6827206488489383E-5
-0.7979224806201554       -1.7663415321521478E-5
-0.7941356589147293       -1.8477918005211635E-5
-0.7903488372093028       -1.927071453955993E-5
-0.7865620155038766       -2.004034817380895E-5
-0.7827751937984502       -2.078546220527853E-5
-0.7789883720930237       -2.15060566339686E-5
-0.7752015503875973       -2.2200801339218517E-5
-0.7714147286821709       -2.2868477853706124E-5
-0.7676279069767447       -2.3509086177431383E-5
-0.7638410852713181       -2.4121437188048992E-5
-0.7600542635658919       -2.4704463815712616E-5
-0.7562674418604656       -2.5258166060422274E-5
-0.7524806201550392       -2.5781508643275725E-5
-0.7486937984496128       -2.627358741859586E-5
-0.7449069767441865       -2.6734402386382642E-5
-0.7411201550387604       -2.7163083294458367E-5
-0.7373333333333337       -2.7558898688070097E-5
-0.7335465116279075       -2.7921848567217814E-5
-0.7297596899224813       -2.8251237107079394E-5
-0.7259728682170548       -2.854651344514078E-5
-0.7221860465116283       -2.8807677581401964E-5
-0.718399224806202        -2.9034215634829545E-5
-0.7146124031007756       -2.9225763285670907E-5
-0.7108255813953492       -2.9382320533926056E-5
-0.7070387596899231       -2.950356099339199E-5
-0.7032519379844967       -2.9589310822529414E-5
-0.6994651162790702       -2.9639570021338357E-5
-0.6956782945736439       -2.965420322413248E-5
-0.6918914728682175       -2.963322894545554E-5
-0.6881046511627911       -2.9576647185307562E-5
-0.6843178294573649       -2.948451506076508E-5
-0.6805310077519384       -2.935704324245718E-5
-0.6767441860465121       -2.9194231730383894E-5
-0.6729573643410858       -2.8996329507394956E-5
-0.6691705426356593       -2.876373712450031E-5
-0.6653837209302331       -2.8496454581699983E-5
-0.6615968992248067       -2.819492003805638E-5
-0.6578100775193803       -2.7859719598131366E-5
-0.6540232558139539       -2.7490853261924965E-5
-0.6502364341085277       -2.7088943631634097E-5
-0.6464496124031012       -2.6654756034158505E-5
-0.6426627906976751       -2.618829046949825E-5
-0.6388759689922484       -2.569034725751617E-5
-0.6350891472868221       -2.516186268024201E-5
-0.6313023255813959       -2.4602836737675775E-5
-0.6275155038759694       -2.4014238822137628E-5
-0.623728682170543        -2.339716605688907E-5
-0.6199418604651167       -2.2751618441930086E-5
-0.6161550387596904       -2.2078723970476265E-5
-0.6123682170542639       -2.137972875568473E-5
-0.6085813953488377       -2.0654632797555565E-5
-0.6047945736434112       -1.9904710505400517E-5
-0.6010077519379848       -1.9131343521519048E-5
-0.5972209302325585       -1.8334531845911174E-5
-0.5934341085271322       -1.751568253757094E-5
-0.5896472868217058       -1.667629784317478E-5
-0.5858604651162794       -1.5816377762722727E-5
-0.582073643410853        -1.4937446805569757E-5
-0.5782868217054268       -1.4041111595212465E-5
-0.5745000000000003       -1.3127372131650827E-5
-0.570713178294574        -1.2197853906558239E-5
-0.5669263565891476       -1.1254250565196026E-5
-0.5631395348837215       -1.0296562107564258E-5
-0.5593527131782948       -9.326497448781504E-6
-0.5555658914728685       -8.345818960792904E-6
-0.5517790697674422       -7.354526643598393E-6
-0.5479922480620161       -6.354394375733007E-6
-0.5442054263565893       -5.347234218345294E-6
-0.5404186046511632       -4.333046171435402E-6
-0.5366317829457368       -3.31364991517823E-6
-0.5328449612403103       -2.290887625693727E-6
-0.529058139534884        -1.2647593029820452E-6
-0.5252713178294576       -2.371107723235138E-7
-0.5214844961240312       7.902055747303994E-7
-0.5176976744186048       1.817189738179634E-6
-0.5139108527131786       2.8419896865972752E-6
-0.5101240310077523       3.86276282288943E-6
-0.506337209302326        4.879509147056063E-6
-0.5025503875968994       5.890390427522689E-6
-0.4987635658914731       6.8935937657403175E-6
-0.4949767441860469       7.88911916170892E-6
-0.49118992248062043      8.875162040636569E-6
-0.48740310077519405      9.849958785797374E-6
-0.4836162790697678       1.0813509397191356E-5
-0.47982945736434135      1.17640624501723E-5
-0.4760426356589151       1.269992266076373E-5
-0.47225581395348876      1.3621090028965667E-5
-0.4684689922480624       1.4525885199502813E-5
-0.4646821705426359       1.541269953393095E-5
-0.4608953488372095       1.6281533032250055E-5
-0.4571085271317833       1.713079654927373E-5
-0.45332170542635686      1.7958985468911206E-5
-0.4495348837209306       1.876609979116248E-5
-0.44574806201550415      1.955065774718132E-5
-0.44196124031007783      2.031127499638211E-5
-0.43817441860465145      2.104795153876487E-5
-0.43438759689922507      2.1759328988174942E-5
-0.43060077519379875      2.2444158233444594E-5
-0.4268139534883723       2.3102439274573815E-5
-0.423027131782946        2.373295178164756E-5
-0.41924031007751966      2.4334595366054387E-5
-0.4154534883720933       2.490737002779434E-5
-0.4116666666666669       2.545020667542985E-5
-0.4078798449612405       2.596216552951486E-5
-0.40409302325581437      2.6443246590049372E-5
-0.4003062015503878       2.6892543552604167E-5
-0.3965193798449615       2.7309287398576467E-5
-0.3927325581395351       2.76934781279663E-5
-0.38894573643410874      2.804438201342717E-5
-0.3851589147286822       2.8361409104286124E-5
-0.38137209302325603      2.864455940054311E-5
-0.37758527131782965      2.8893279677798003E-5
-0.3737984496124032       2.9107165426068044E-5
-0.37001162790697684      2.9286216645353245E-5
-0.3662248062015506       2.9430066590235836E-5
-0.3624379844961243       2.953850056101774E-5
-0.35865116279069786      2.961151855769897E-5
-0.3548643410852716       2.964894427549871E-5
-0.3510775193798452       2.965075514423079E-5
-0.3472906976744189       2.9616951163895194E-5
-0.34350387596899246      2.9547548374826048E-5
-0.33971705426356597      2.9442716580156703E-5
-0.3359302325581397       2.930245577988718E-5
-0.3321434108527133       2.912697418619566E-5
-0.3283565891472869       2.8916632141288976E-5
-0.32456976744186067      2.867142964516718E-5
-0.3207829457364343       2.839176483270467E-5
-0.31699612403100796      2.8078184692696068E-5
-0.3132093023255816       2.7730689225141376E-5
-0.3094224806201552       2.7349862186882007E-5
-0.30563565891472894      2.6936431304622436E-5
-0.3018488372093024       2.6490396578362603E-5
-0.2980620155038761       2.6012521081057488E-5
-0.29427519379844974      2.5503705416277816E-5
-0.2904883720930235       2.49639495840236E-5
-0.2867015503875969       2.439418773050271E-5
-0.28291472868217077      2.3795483607659755E-5
-0.27912790697674433      2.31678372154946E-5
-0.27534108527131806      2.2512343682641652E-5
-0.27155426356589163      2.183021841856643E-5
-0.26776744186046514      2.1121461423268955E-5
-0.26398062015503904      2.0387316978020312E-5
-0.26019379844961243      1.9629139020720728E-5
-0.25640697674418605      1.8846927551370345E-5
-0.25262015503875973      1.804206256291177E-5
-0.24883333333333357      1.7216021896183152E-5
-0.2450465116279069       1.6368805551184368E-5
-0.2412596899224807       1.550191432558134E-5
-0.2374728682170544       1.4616933999229444E-5
-0.2336860465116282       1.3713864572128732E-5
-0.22989922480620173      1.2794311434763544E-5
-0.2261124031007753       1.185995117610849E-5
-0.2223255813953491       1.0910783796163624E-5
-0.21853875968992253      9.948501936495787E-6
-0.2147519379844962       8.974854884362902E-6
-0.21096511627906978      7.989842639764894E-6
-0.2071782945736436       6.995226811112295E-6
-0.20339147286821702      5.992810487809351E-6
-0.1996046511627908       4.982593669856234E-6
-0.19581782945736448      3.966387903274671E-6
-0.19203100775193802      2.9460306022978444E-6
-0.1882441860465117       1.9215217669258135E-6
-0.18445736434108526      8.947033121239962E-7
-0.18067054263565904      -1.3257287114672994E-7
-0.17688372093023272      -1.1603067828864553E-6
-0.1730968992248063       -2.1866460359049833E-6
-0.16931007751937976      -3.2097442669955227E-6
-0.16552325581395355      -4.229601476157956E-6
-0.16173643410852725      -5.24437481381932E-6
-0.15794961240310082      -6.252243389296834E-6
-0.1541627906976745       -7.253207202590442E-6
-0.15037596899224825      -8.245452848558641E-6
-0.1465891472868217       -9.227204578655479E-6
-0.1428023255813953       -1.0198462392880827E-5
-0.139015503875969        -1.11574619192741E-5
-0.13522868217054274      -1.210249173341899E-5
-0.1314418604651163       -1.30335518353155E-5
-0.12765503875968998      -1.394894594526425E-5
-0.12386821705426355      -1.4847045450258437E-5
-0.12008139534883756      -1.5727850350297935E-5
-0.11629457364341066      -1.658975078151505E-5
-0.11250775193798446      -1.7431218536270802E-5
-0.10872093023255826      -1.825225361456536E-5
-0.10493410852713204      -1.9051349960466077E-5
-0.10114728682170536      -1.982709629570761E-5
-0.09736046511627915      -2.0579492620289762E-5
-0.09357364341085272      -2.13071529825582E-5
-0.08978682170542629      -2.200879823831044E-5
-0.08600000000000008      -2.2684428387546436E-5
-0.08233333333333334      -2.3312639312990957E-5
-0.07866666666666668      -2.3914257381602693E-5
-0.07500000000000019      -2.4489282593381596E-5
-0.07133333333333323      -2.5036711534869316E-5
-0.06766666666666676      -2.555565259863804E-5
-0.06400000000000004      -2.6046105784687865E-5
-0.060333333333333364     -2.650720843414089E-5
-0.056666666666666664     -2.6938216722131203E-5
-0.05299999999999992      -2.7339130648658806E-5
-0.04946666666666677      -2.7696318846448698E-5
-0.045933333333333395     -2.8024371602856882E-5
-0.04239999999999999      -2.8323288917883337E-5
-0.0388666666666666       -2.859256963327818E-5
-0.03533333333333344      -2.8831824073477194E-5
-0.031800000000000044     -2.9041052238480443E-5
-0.028266666666666662     -2.9219892779235745E-5
-0.024733333333333052     -2.93680986287123E-5
-0.021199999999999886     -2.9485669786910088E-5
-0.01766666666666672      -2.9572388089842737E-5
-0.014133333333333331     -2.9628151409735483E-5
-0.010599999999999943     -2.9652959746588338E-5
-0.0070666666666667766    -2.9646740178645718E-5
-0.0035333333333333887    -2.9609536481634972E-5
-2.224220807534037E-16    -2.9541348655556127E-5
0.0033333333333334107     -1.9996387422269436E-5
0.006666666666666601      -1.0424742473086536E-5
0.01000000000000001       -8.264138080061743E-7
0.01363888888888897       -7.390888254457625E-7
0.017277777777777725      -6.509929325444192E-7
0.020916666666666694      -5.621261293021334E-7
0.02455555555555566       -4.7263545735086875E-7
0.028194444444444414      -3.8267044672953227E-7
0.03183333333333338       -2.9223109743811315E-7
0.03547222222222213       -2.0146741568637238E-7
0.039111111111110874      -1.105307039150552E-7
0.04275000000000006       -1.942096212415081E-8
0.0463888888888886        7.171033400413566E-8
0.05002777777777778       1.6271162247559686E-7
0.053666666666666536      2.535829032902051E-7
0.0573055555555555        3.441727446060027E-7
0.060944444444444246      4.3433083715312743E-7
0.06458333333333321       5.2405718093159E-7
0.06822222222222196       6.132018987971476E-7
0.07186111111111115       7.016174336070954E-7
0.07549999999999966       7.893037853614074E-7
0.07913888888888888       8.761141267278366E-7
0.0827777777777776        9.619051246306946E-7
0.08641666666666659       1.0466767790699967E-6
0.09005555555555532       1.1302867771888394E-6
0.09369444444444454       1.2125974397834015E-6
0.09733333333333306       1.2936087668536583E-6
0.10097222222222224       1.373184379644598E-6
0.10461111111111097       1.4511936262439823E-6
0.10825000000000017       1.5276365066518292E-6
0.11188888888888891       1.6023839366514645E-6
0.11552777777777788       1.6753135950680862E-6
0.11916666666666664       1.7464254819016853E-6
0.12280555555555583       1.8155990953828538E-6
0.12644444444444436       1.8827216665450242E-6
0.13008333333333355       1.9477931953882195E-6
0.13372222222222233       2.0107029666343587E-6
0.13736111111111127       2.0713488850329226E-6
0.14100000000000004       2.129730950583906E-6
0.14466666666666675       2.1861678514987295E-6
0.14833333333333343       2.2401123713110365E-6
0.15199999999999966       2.2915645100208184E-6
0.15566666666666662       2.3404343506271952E-6
0.15933333333333352       2.3866424381215058E-6
0.163                     2.430188772503744E-6
0.16666666666666674       2.470996603593831E-6
0.17033333333333323       2.50900026900448E-6
0.17399999999999993       2.544199768735694E-6
0.17778231292517008       2.577505362684904E-6
0.18156462585034006       2.6077041767691673E-6
0.18534693877551023       2.6347962109884855E-6
0.18912925170068015       2.658728827033383E-6
0.19291156462585035       2.679463002711592E-6
0.19669387755102033       2.6969987380231097E-6
0.2004761904761905        2.7113004694961056E-6
0.20425850340136045       2.7223465684645744E-6
0.20804081632653057       2.7301370349285165E-6
0.21182312925170077       2.734653761235646E-6
0.21560544217687072       2.7358927463848783E-6
0.21938775510204064       2.7338539903762113E-6
0.22317006802721087       2.7285370371778627E-6
0.22695238095238102       2.7199555566887927E-6
0.23073469387755097       2.7081095489090005E-6
0.2345170068027211        2.693016214409923E-6
0.23829931972789087       2.674706746679948E-6
0.2420816326530613        2.6531811457190712E-6
0.24586394557823119       2.6284740833476914E-6
0.24964625850340139       2.6006339404867526E-6
0.2534285714285713        2.569660717136256E-6
0.25721088435374156       2.5356061827253403E-6
0.26099319727891174       2.4985353842301523E-6
0.26477551020408163       2.4584483216506965E-6
0.26855782312925164       2.4154133041313568E-6
0.2723401360544219        2.369511343724258E-6
0.2761224489795917        2.3207424404294147E-6
0.27990476190476166       2.2691907069724897E-6
0.28368707482993205       2.2149522474546408E-6
0.2874693877551018        2.1580270618758864E-6
0.29125170068027195       2.098514160101781E-6
0.2950340136054421        2.0365237026160053E-6
0.2988163265306118        1.972055689418565E-6
0.30259863945578225       1.9052229605343972E-6
0.3063809523809522        1.8361485456844688E-6
0.3101632653061223        1.7648324448687689E-6
0.3139455782312926        1.6914001122503137E-6
0.31772789115646244       1.6159861209566732E-6
0.32151020408163283       1.5385904709878322E-6
0.3252925170068026        1.4593498786872133E-6
0.32907482993197273       1.378409010360706E-6
0.33285714285714274       1.2957678660083255E-6
0.3366394557823129        1.2115729508292009E-6
0.3404217687074829        1.1259774653101428E-6
0.34420408163265304       1.0389814094511405E-6
0.34798639455782276       9.507394984927727E-7
0.35176870748299316       8.614118161365701E-7
0.3555510204081634        7.709983623825523E-7
0.35933333333333334       6.796603952228226E-7
0.36311564625850323       5.875631564305432E-7
0.3668979591836734        4.94706646005709E-7
0.3706802721088436        4.0125692689407504E-7
0.37446258503401353       3.073826182112891E-7
0.37824489795918376       2.1308371995734003E-7
0.38202721088435404       1.1852931045311419E-7
0.38580952380952377       2.388956903165758E-8
0.38959183673469394       -7.083550430705754E-8
0.39337414965986395       -1.6547563794071228E-7
0.3971564625850341        -2.5986092625769963E-7
0.40093877551020407       -3.539913692580086E-7
0.40472108843537385       -4.476973369512653E-7
0.40850340136054386       -5.408110284362986E-7
0.4122857142857142        -6.333324437130978E-7
0.41606802721088404       -7.250944224420009E-7
0.4198503401360543        -8.159330767398634E-7
0.4236326530612245        -9.058484066066793E-7
0.4274149659863946        -9.946775227580936E-7
0.4311972789115645        -1.0822622164679105E-6
0.4349795918367345        -1.1686024877361345E-6
0.4387619047619049        -1.2535414737112476E-6
0.44254421768707486       -1.3369283497614581E-6
0.4463265306122448        -1.4187631158867774E-6
0.45010884353741526       -1.4988966261021443E-6
0.4538911564625849        -1.5771870652328941E-6
0.4576734693877551        -1.6536344332790506E-6
0.46145578231292506       -1.728098908394754E-6
0.465238095238095         -1.8004492131347304E-6
0.4690204081632654        -1.8706853474989874E-6
0.4728027210884354        -1.938678320571994E-6
0.47658503401360514       -2.004308807350164E-6
0.4803673469387754        -2.0675768078335123E-6
0.4841496598639457        -2.1283655521083476E-6
0.48793197278911554       -2.186568953519511E-6
0.49171428571428555       -2.2421870120670086E-6
0.4954965986394558        -2.295116437210813E-6
0.49927891156462617       -2.3452655238877856E-6
0.5030612244897958        -2.3926342720979157E-6
0.506843537414966         -2.437133983786067E-6
0.5106258503401364        -2.4786883237413797E-6
0.5144081632653061        -2.5172972919638473E-6
0.518190476190476         -2.552887738738434E-6
0.5219727891156463        -2.5853995213334956E-6
0.5257551020408161        -2.6148326397490328E-6
0.5295374149659864        -2.641130280908528E-6
0.5333197278911563        -2.6642491426881304E-6
0.5371020408163263        -2.684189225087843E-6
0.5408843537414966        -2.700910663916189E-6
0.5446666666666666        -2.714387464302762E-6
0.5484489795918366        -2.7246196262475627E-6
0.5522312925170069        -2.7315846640409E-6
0.5560136054421769        -2.73527417019971E-6
0.5597959183673469        -2.735688144723995E-6
0.5635782312925169        -2.7328217227032577E-6
0.5673605442176873        -2.726684174645073E-6
0.5711428571428573        -2.717275500549446E-6
0.5749251700680271        -2.7046085087318194E-6
0.5787074829931973        -2.6887100477867233E-6
0.5824897959183672        -2.669580117714161E-6
0.5862721088435373        -2.6472490620266097E-6
0.5900544217687074        -2.621761018071484E-6
0.5938367346938772        -2.5931159858487872E-6
0.5976190476190477        -2.5613615170709485E-6
0.6014013605442176        -2.526558562191843E-6
0.6051836734693874        -2.4887071212114722E-6
0.6089659863945579        -2.4478714416008546E-6
0.6127482993197281        -2.4041286300873095E-6
0.6165306122448977        -2.357478686670842E-6
0.6203129251700681        -2.3080018622177433E-6
0.6240952380952379        -2.2557905887875876E-6
0.6278775510204084        -2.200844866380369E-6
0.6316598639455782        -2.1432600844336435E-6
0.6354421768707483        -2.0831430042444733E-6
0.6392244897959185        -2.020493625812865E-6
0.6430068027210882        -1.955421449182658E-6
0.6467891156462583        -1.888046414374548E-6
0.6505714285714286        -1.8183685213885438E-6
0.6543537414965986        -1.7465102008467876E-6
0.6581360544217687        -1.672603278959085E-6
0.6619183673469385        -1.5966477557254445E-6
0.665700680272109         -1.5187776729718698E-6
0.6694829931972791        -1.4391353224708969E-6
0.673265306122449         -1.3577207042225186E-6
0.6770476190476195        -1.2746780267540467E-6
0.680829931972789         -1.1901585139900096E-6
0.6846122448979591        -1.1041621659303863E-6
0.6883945578231294        -1.016841803739958E-6
0.6921768707482993        -9.28355953808332E-7
0.6959591836734697        -8.387046161354752E-7
0.6997414965986395        -7.480475776391883E-7
0.7035238095238092        -6.565489586186011E-7
0.7073061224489794        -5.64208759073697E-7
0.7110884353741498        -4.7119200942472536E-7
0.7148707482993195        -3.776666531021935E-7
0.7186530612244897        -2.836326901060738E-7
0.7224353741496604        -1.8925861229234208E-7
0.7262176870748301        -9.471438225698685E-8
0.73                      -4.736184363087342E-22
